793
258
163
1134
169
1765
1396
98
381
1368
1875
740
1705
1715
1561
1242
202
1996
1535
1641
